% Model:              Untitled.mph
% Version:            COMSOL 6.2.0.339
% Date:               Aug 30 2024, 12:51
% Table:              Table 1 - Volume Average 1
% loadcase               group.cp11               group.cp22               group.cp33               group.cp12               group.cp23               group.cp13               Density (kg/m^3)         -1/solid.cp1.Dinv11*solid.cp1.Dinv12 (1) 1/solid.cp1.Dinv11 (Pa)  1/solid.cp1.Dinv55 (Pa)  Bulk modulus (N/m^2)     Tresca stress (N/m^2)    Elasticity matrix, 11-component (Pa) Elasticity matrix, 12-component (Pa) Elasticity matrix, 13-component (Pa) Elasticity matrix, 14-component (Pa) Elasticity matrix, 15-component (Pa) Elasticity matrix, 16-component (Pa) Elasticity matrix, 12-component (Pa) Elasticity matrix, 22-component (Pa) Elasticity matrix, 23-component (Pa) Elasticity matrix, 24-component (Pa) Elasticity matrix, 25-component (Pa) Elasticity matrix, 26-component (Pa) Elasticity matrix, 13-component (Pa) Elasticity matrix, 23-component (Pa) Elasticity matrix, 33-component (Pa) Elasticity matrix, 34-component (Pa) Elasticity matrix, 35-component (Pa) Elasticity matrix, 36-component (Pa) Elasticity matrix, 14-component (Pa) Elasticity matrix, 24-component (Pa) Elasticity matrix, 34-component (Pa) Elasticity matrix, 44-component (Pa) Elasticity matrix, 45-component (Pa) Elasticity matrix, 46-component (Pa) Elasticity matrix, 15-component (Pa) Elasticity matrix, 25-component (Pa) Elasticity matrix, 35-component (Pa) Elasticity matrix, 45-component (Pa) Elasticity matrix, 55-component (Pa) Elasticity matrix, 56-component (Pa) Elasticity matrix, 16-component (Pa) Elasticity matrix, 26-component (Pa) Elasticity matrix, 36-component (Pa) Elasticity matrix, 46-component (Pa) Elasticity matrix, 56-component (Pa) Elasticity matrix, 66-component (Pa) Compliance matrix, 11-component (1/Pa) Compliance matrix, 12-component (1/Pa) Compliance matrix, 13-component (1/Pa) Compliance matrix, 21-component (1/Pa) Compliance matrix, 22-component (1/Pa) Compliance matrix, 23-component (1/Pa) Compliance matrix, 31-component (1/Pa) Compliance matrix, 32-component (1/Pa) Compliance matrix, 33-component (1/Pa) Compliance matrix, 44-component (1/Pa) Compliance matrix, 55-component (1/Pa) Compliance matrix, 66-component (1/Pa)
6                        0                        0                        0                        0                        0                        1                        870.4557135418216        0.21574383153531312                      1.4367006171987925E9     5.720376163627392E8      1.7986739017859524E10    4.413328855561458E9      1.6312163230424244E9                 4.5143114274766654E8                 4.5038936680515206E8                 -369614.59680531954                  187419.75126844374                   189310.41078325003                   4.5143114274766654E8                 1.640451519462416E9                  4.522066151639445E8                  6658.993554863988                    233133.70711831693                   137468.47426154587                   4.5038936680515206E8                 4.522066151639445E8                  1.6361940876184611E9                 -81607.65435333237                   225550.8825591539                    -320839.738985318                    -369614.59680531954                  6658.993554863988                    -81607.65435333237                   5.722385461900648E8                  57892.102527728115                   756.7387884296406                    187419.75126844374                   233133.70711831693                   225550.8825591539                    57892.102527728115                   5.720377044194614E8                  122915.485816703                     189310.41078325003                   137468.47426154587                   -320839.738985318                    756.7387884296406                    122915.485816703                     5.722646505416895E8                  6.960392360307711E-10                  -1.5016617168019843E-10                -1.5009378555098785E-10                -1.5016617168019843E-10                6.922579324737165E-10                  -1.4998856606124725E-10                -1.5009378555098783E-10                -1.4998856606124725E-10                6.939437471959172E-10                  1.7475232609948115E-9                  1.7481367857562273E-9                  1.747443735707221E-9
